VARIABLES="iterations", "scaled residual"
ZONE T=""
0 1
0 1
0 0.185434
1 0.0817107
2 0.0152959
3 0.00192113
4 0.000592874
5 0.0001802
6 8.75149e-05
7 1.62549e-05
8 3.50127e-06
9 1.7823e-06
10 5.67504e-07
11 1.21194e-07
12 4.83237e-08
13 1.49475e-08
14 9.05495e-09
15 1.76242e-09
16 4.62419e-10
17 1.8307e-10
18 7.73099e-11
19 4.21098e-11
20 1.48663e-11
21 4.12503e-12
22 1.81014e-12
23 1.07781e-12
24 3.27995e-13
