VARIABLES="iterations", "scaled residual"
ZONE T=""
0 1
0 8.58459
0 0.303935
1 0.210051
2 0.15663
3 0.126691
4 0.107385
5 0.0940607
6 0.0842943
7 0.0767228
8 0.0705739
9 0.0653813
10 0.0608583
11 0.0568259
12 0.0531708
13 0.0498193
14 0.046722
15 0.0438444
16 0.0411612
17 0.0386533
18 0.0363054
19 0.0341047
20 0.0320403
21 0.0301028
22 0.0282836
23 0.026575
24 0.02497
25 0.0234621
26 0.0220452
27 0.0207139
28 0.0194629
29 0.0182873
30 0.0171826
31 0.0161444
32 0.0151689
33 0.0142522
34 0.0133907
35 0.0125812
36 0.0118206
37 0.0111058
38 0.0104342
39 0.00980316
40 0.00921021
41 0.00865307
42 0.00812958
43 0.00763773
44 0.0071756
45 0.00674141
46 0.00633346
47 0.00595018
48 0.00559007
49 0.00525174
50 0.00493388
51 0.00463524
52 0.00435466
53 0.00409107
54 0.00384342
55 0.00361075
56 0.00339217
57 0.00318681
58 0.00299388
59 0.00281263
60 0.00264235
61 0.00248237
62 0.00233208
63 0.00219088
64 0.00205823
65 0.00193362
66 0.00181654
67 0.00170656
68 0.00160323
69 0.00150616
70 0.00141496
71 0.00132929
72 0.0012488
73 0.00117318
74 0.00110215
75 0.00103541
76 0.000972719
77 0.00091382
78 0.000858488
79 0.000806506
80 0.000757671
81 0.000711793
82 0.000668693
83 0.000628203
84 0.000590164
85 0.000554429
86 0.000520857
87 0.000489319
88 0.000459689
89 0.000431854
90 0.000405705
91 0.000381139
92 0.00035806
93 0.000336379
94 0.00031601
95 0.000296875
96 0.000278899
97 0.000262011
98 0.000246145
99 0.000231241
100 0.000217239
101 0.000204084
102 0.000191727
103 0.000180117
104 0.000169211
105 0.000158964
106 0.000149339
107 0.000140296
108 0.000131801
109 0.00012382
110 0.000116322
111 0.000109279
112 0.000102662
113 9.64452e-05
114 9.06052e-05
115 8.51188e-05
116 7.99647e-05
117 7.51226e-05
118 7.05738e-05
119 6.63003e-05
120 6.22857e-05
121 5.85141e-05
122 5.4971e-05
123 5.16423e-05
124 4.85153e-05
125 4.55775e-05
126 4.28177e-05
127 4.0225e-05
128 3.77893e-05
129 3.5501e-05
130 3.33514e-05
131 3.13319e-05
132 2.94346e-05
133 2.76523e-05
134 2.59779e-05
135 2.44049e-05
136 2.29271e-05
137 2.15388e-05
138 2.02346e-05
139 1.90093e-05
140 1.78582e-05
141 1.67769e-05
142 1.5761e-05
143 1.48066e-05
144 1.39101e-05
145 1.30678e-05
146 1.22765e-05
147 1.15331e-05
148 1.08348e-05
149 1.01787e-05
150 9.56234e-06
151 8.98331e-06
152 8.43935e-06
153 7.92833e-06
154 7.44825e-06
155 6.99724e-06
156 6.57354e-06
157 6.17549e-06
158 5.80155e-06
159 5.45025e-06
160 5.12023e-06
161 4.81019e-06
162 4.51892e-06
163 4.24528e-06
164 3.98822e-06
165 3.74673e-06
166 3.51985e-06
167 3.30672e-06
168 3.10649e-06
169 2.91838e-06
170 2.74167e-06
171 2.57565e-06
172 2.41969e-06
173 2.27317e-06
174 2.13552e-06
175 2.00621e-06
176 1.88473e-06
177 1.77061e-06
178 1.66339e-06
179 1.56267e-06
180 1.46805e-06
181 1.37915e-06
182 1.29564e-06
183 1.21719e-06
184 1.14348e-06
185 1.07424e-06
186 1.00919e-06
187 9.48085e-07
188 8.90676e-07
189 8.36744e-07
190 7.86077e-07
191 7.38478e-07
192 6.93761e-07
193 6.51752e-07
194 6.12287e-07
195 5.75211e-07
196 5.40381e-07
197 5.0766e-07
198 4.76919e-07
199 4.48041e-07
200 4.20911e-07
201 3.95424e-07
202 3.7148e-07
203 3.48986e-07
204 3.27854e-07
205 3.08001e-07
206 2.89351e-07
207 2.7183e-07
208 2.5537e-07
209 2.39907e-07
210 2.2538e-07
211 2.11733e-07
212 1.98912e-07
213 1.86867e-07
214 1.75552e-07
215 1.64922e-07
216 1.54935e-07
217 1.45554e-07
218 1.3674e-07
219 1.2846e-07
220 1.20681e-07
221 1.13374e-07
222 1.06509e-07
223 1.00059e-07
224 9.40006e-08
225 8.83086e-08
226 8.29613e-08
227 7.79378e-08
228 7.32185e-08
229 6.87849e-08
230 6.46198e-08
231 6.07069e-08
232 5.7031e-08
233 5.35776e-08
234 5.03333e-08
235 4.72855e-08
236 4.44223e-08
237 4.17324e-08
238 3.92054e-08
239 3.68314e-08
240 3.46012e-08
241 3.2506e-08
242 3.05377e-08
243 2.86885e-08
244 2.69514e-08
245 2.53194e-08
246 2.37863e-08
247 2.23459e-08
248 2.09928e-08
249 1.97217e-08
250 1.85275e-08
251 1.74056e-08
252 1.63516e-08
253 1.53615e-08
254 1.44313e-08
255 1.35575e-08
256 1.27365e-08
257 1.19653e-08
258 1.12408e-08
259 1.05601e-08
260 9.92068e-09
261 9.31996e-09
262 8.75561e-09
263 8.22544e-09
264 7.72737e-09
265 7.25945e-09
266 6.81988e-09
267 6.40692e-09
268 6.01896e-09
269 5.6545e-09
270 5.3121e-09
271 4.99044e-09
272 4.68826e-09
273 4.40437e-09
274 4.13768e-09
275 3.88713e-09
276 3.65176e-09
277 3.43063e-09
278 3.2229e-09
279 3.02774e-09
280 2.84441e-09
281 2.67217e-09
282 2.51036e-09
283 2.35836e-09
284 2.21555e-09
285 2.08139e-09
286 1.95536e-09
287 1.83696e-09
288 1.72573e-09
289 1.62123e-09
290 1.52306e-09
291 1.43083e-09
292 1.34419e-09
293 1.2628e-09
294 1.18633e-09
295 1.1145e-09
296 1.04701e-09
297 9.83614e-10
298 9.24054e-10
299 8.681e-10
300 8.15534e-10
301 7.66152e-10
302 7.19759e-10
303 6.76176e-10
304 6.35232e-10
305 5.96767e-10
306 5.60631e-10
307 5.26684e-10
308 4.94792e-10
309 4.64831e-10
310 4.36684e-10
311 4.10242e-10
312 3.85401e-10
313 3.62064e-10
314 3.4014e-10
315 3.19544e-10
316 3.00194e-10
317 2.82017e-10
318 2.6494e-10
319 2.48897e-10
320 2.33826e-10
321 2.19667e-10
322 2.06366e-10
323 1.9387e-10
324 1.8213e-10
325 1.71102e-10
326 1.60741e-10
327 1.51008e-10
328 1.41864e-10
329 1.33274e-10
330 1.25204e-10
331 1.17623e-10
332 1.105e-10
333 1.03809e-10
334 9.75232e-11
335 9.16179e-11
336 8.60703e-11
337 8.08585e-11
338 7.59623e-11
339 7.13626e-11
340 6.70415e-11
341 6.29819e-11
342 5.91682e-11
343 5.55853e-11
344 5.22194e-11
345 4.90576e-11
346 4.6087e-11
347 4.32964e-11
348 4.06745e-11
349 3.82117e-11
350 3.58978e-11
351 3.37242e-11
352 3.16821e-11
353 2.97637e-11
354 2.79613e-11
355 2.62683e-11
356 2.46776e-11
357 2.31833e-11
358 2.17795e-11
359 2.04607e-11
360 1.92218e-11
361 1.80579e-11
362 1.69644e-11
363 1.59372e-11
364 1.49721e-11
365 1.40656e-11
366 1.32139e-11
367 1.24137e-11
368 1.1662e-11
369 1.09559e-11
370 1.02925e-11
371 9.6692e-12
372 9.08378e-12
373 8.53367e-12
374 8.01694e-12
375 7.5316e-12
376 7.07543e-12
377 6.64714e-12
378 6.24455e-12
379 5.86639e-12
380 5.51124e-12
381 5.17757e-12
382 4.86401e-12
383 4.56947e-12
384 4.29283e-12
385 4.03284e-12
386 3.78866e-12
387 3.5591e-12
388 3.34369e-12
389 3.1412e-12
390 2.95098e-12
391 2.77239e-12
392 2.60442e-12
393 2.44675e-12
394 2.29861e-12
395 2.15941e-12
396 2.0287e-12
397 1.90582e-12
398 1.79046e-12
399 1.68204e-12
400 1.58015e-12
401 1.48458e-12
402 1.39454e-12
403 1.31019e-12
404 1.23082e-12
405 1.15627e-12
406 1.08629e-12
407 1.02058e-12
408 9.58734e-13
