VARIABLES="iterations", "scaled residual"
ZONE T=""
0 1
0 1
0 0.132997
1 0.0538463
2 0.0202461
3 0.00485867
4 0.00107444
5 0.000139362
6 8.0959e-05
7 2.09162e-05
8 4.04446e-06
9 6.8437e-07
10 2.06801e-07
11 5.53317e-08
12 1.28447e-08
13 3.92445e-09
14 1.83781e-09
15 8.88282e-10
16 3.2468e-10
17 1.11777e-10
18 3.70052e-11
19 1.14971e-11
20 3.71571e-12
21 2.00535e-12
22 1.00315e-12
23 3.94812e-13
